# vtk DataFile Version 3.0
vtk output
ASCII
DATASET POLYDATA
POINTS 3884 float
5.99881 0.777162 0.455025 6.00923 0.7771 0.459111 6.00835 0.785157 0.458178 
6.02201 0.776969 0.460531 6.02155 0.785017 0.459937 6.03537 0.776682 0.459714 
6.03475 0.784809 0.457779 6.05455 0.779114 0.451355 6.05247 0.784952 0.449279 
6.04776 0.775988 0.455363 6.02095 0.79283 0.458758 6.0331 0.792708 0.457353 
6.04235 0.792704 0.45328 6.05072 0.792809 0.448456 5.92323 0.916049 0.23426 
5.9291 0.909428 0.24564 5.92311 0.915975 0.24569 5.91832 0.922862 0.245721 
5.9099 0.941564 0.234269 5.91243 0.934015 0.24569 5.90991 0.941523 0.245657 
5.90875 0.949286 0.245652 5.90833 0.95715 0.234261 5.90844 0.957142 0.245602 
5.9094 0.964916 0.245541 5.91118 0.972467 0.234238 5.91146 0.972457 0.245432 
5.9157 0.97936 0.24532 5.96566 0.889369 0.258338 5.97498 0.889557 0.251423 
5.97548 0.887394 0.259255 5.96034 0.893305 0.245963 5.95675 0.892005 0.257131 
5.94832 0.895565 0.256792 5.94179 0.900332 0.245516 5.9403 0.899525 0.256773 
5.93396 0.904206 0.257102 5.92813 0.90944 0.257412 5.92302 0.915877 0.257502 
5.91849 0.922452 0.257432 5.91518 0.928386 0.257378 5.91231 0.93443 0.257305 
6.03659 0.924714 0.257601 6.03715 0.932758 0.245779 6.03724 0.932705 0.257508 
5.91032 0.941609 0.257274 6.03705 0.940726 0.257451 5.90906 0.949276 0.257227 
6.03656 0.948749 0.245606 6.03623 0.948665 0.257288 5.90914 0.957081 0.257152 
6.03427 0.956329 0.256988 5.91008 0.964828 0.257002 6.03207 0.964257 0.245394 
6.03151 0.963408 0.256752 5.91275 0.972168 0.256743 5.92579 0.366055 0.118201 
5.91283 0.368634 0.121006 5.92504 0.37373 0.123556 5.91249 0.371723 0.124173 
5.94035 0.366728 0.117275 5.94296 0.372421 0.119504 5.95401 0.367225 0.117649 
5.95542 0.373038 0.118819 5.96634 0.367786 0.118569 5.96764 0.373686 0.120017 
5.9761 0.368116 0.120491 5.9853 0.368329 0.122637 5.98385 0.375298 0.12347 
5.9747 0.377062 0.121774 5.94489 0.379991 0.1249 5.95665 0.377395 0.121132 
5.95772 0.381395 0.123686 5.97134 0.381104 0.124037 5.91503 0.339398 0.125118 
5.91585 0.331833 0.132608 5.90131 0.339346 0.132114 5.92718 0.333928 0.12701 
5.92747 0.330003 0.130523 5.92659 0.33785 0.123391 5.9404 0.337925 0.123559 
5.94102 0.329806 0.130325 5.95489 0.333771 0.127346 5.95513 0.32987 0.130573 
5.95505 0.338173 0.124267 5.96807 0.338337 0.126615 5.96924 0.331437 0.132351 
5.97417 0.335494 0.12979 5.9014 0.346673 0.125188 5.89172 0.34749 0.131629 
5.95641 0.344184 0.121853 5.96906 0.344357 0.123725 5.97899 0.34438 0.126313 
5.9842 0.33776 0.131895 5.98857 0.344466 0.129193 5.89244 0.353846 0.125842 
5.88866 0.353058 0.130622 5.97137 0.351419 0.122215 5.98984 0.351201 0.12731 
5.89101 0.358533 0.125132 5.88973 0.358546 0.130108 5.98422 0.361282 0.123263 
6.00204 0.360191 0.129634 5.89401 0.362272 0.124874 5.89734 0.366371 0.129861 
5.89796 0.36578 0.124436 5.9943 0.368195 0.12574 6.00341 0.368058 0.128972 
5.90461 0.368772 0.124542 5.91192 0.373429 0.13001 6.00284 0.375505 0.129565 
5.92959 0.380118 0.131361 5.9838 0.381395 0.125189 5.99324 0.381807 0.127766 
6.00182 0.382416 0.130654 5.94683 0.38571 0.132238 5.95847 0.384801 0.127445 
5.95866 0.388079 0.131834 5.97272 0.388908 0.131524 5.98471 0.385641 0.128261 
5.98621 0.389384 0.13155 5.99863 0.388192 0.133402 5.91977 0.326791 0.139145 
5.92853 0.327198 0.13469 5.92894 0.324426 0.139382 5.91166 0.329756 0.138568 
5.94164 0.32393 0.139032 5.95526 0.326874 0.13474 5.9555 0.323738 0.139331 
5.96919 0.325725 0.139649 5.97483 0.328832 0.136516 5.90467 0.333692 0.138271 
5.89788 0.33771 0.137811 5.98526 0.330736 0.138798 5.99027 0.335015 0.136153 
6.00937 0.43409 0.331286 6.01667 0.427415 0.340196 6.01415 0.434509 0.341635 
6.09933 0.425895 0.332326 6.10137 0.433103 0.334674 6.09195 0.426033 0.338826 
6.08448 0.426317 0.345106 6.08701 0.433332 0.348008 6.00886 0.44207 0.332248 
6.0139 0.442384 0.343415 6.0988 0.443486 0.346308 6.10976 0.443677 0.330748 
6.00871 0.450192 0.33278 6.01201 0.450673 0.344465 6.10719 0.451708 0.343197 
6.1129 0.451041 0.331774 6.10153 0.448727 0.349104 6.00849 0.458281 0.33335 
6.01138 0.458647 0.345291 6.11528 0.458659 0.332442 6.11118 0.458844 0.34368 
6.00915 0.46637 0.333838 6.01112 0.466638 0.346428 6.11335 0.466699 0.345529 
6.11789 0.466453 0.333256 6.01 0.474458 0.334164 6.01173 0.474945 0.347396 
6.12061 0.474475 0.333899 6.11715 0.475119 0.346802 6.01167 0.482494 0.333865 
6.01306 0.485734 0.350374 6.12027 0.483368 0.348651 6.12503 0.485435 0.33257 
6.01316 0.489492 0.332479 6.01336 0.490759 0.341451 6.01393 0.491778 0.350223 
6.12489 0.492386 0.345003 6.12705 0.492184 0.333465 6.12219 0.488929 0.351433 
6.01512 0.495803 0.332591 6.0152 0.499213 0.348789 6.03736 0.940847 0.223119 
6.03701 0.948855 0.223081 6.03725 0.940816 0.234289 6.03687 0.948826 0.234189 
5.9083 0.957148 0.223153 5.90865 0.949286 0.223155 5.90859 0.949283 0.234259 
6.0355 0.956675 0.234065 6.03608 0.956758 0.222935 5.90919 0.964927 0.223238 
5.90907 0.964959 0.234247 6.03392 0.964304 0.222677 6.03329 0.964264 0.233608 
5.91116 0.972496 0.223282 6.02958 0.971231 0.23246 6.03098 0.971251 0.222405 
5.91529 0.979487 0.223342 5.91462 0.979247 0.2342 6.02689 0.976902 0.222589 
6.02217 0.982354 0.222821 6.02112 0.981406 0.233828 5.92508 0.989297 0.234065 
5.92558 0.989096 0.223209 5.91962 0.984522 0.234157 6.01496 0.987827 0.222888 
6.01457 0.987294 0.233571 5.94022 0.996668 0.233824 5.94056 0.996458 0.223056 
5.93246 0.993123 0.233957 6.00049 0.995241 0.222953 5.98964 0.997604 0.235112 
6.00007 0.994839 0.233929 6.00762 0.991338 0.233575 5.95921 1.0006 0.233551 
5.9588 1.00055 0.222918 5.94931 0.99888 0.233663 5.97128 1.00121 0.222566 
5.9713 1.00041 0.233541 5.98319 0.999836 0.221563 5.95072 0.897161 0.234218 
5.96092 0.894303 0.234109 5.94187 0.900606 0.234176 5.97388 0.892749 0.233606 
5.97405 0.891367 0.243565 5.98765 0.892549 0.233463 5.9876 0.890983 0.243778 
6.00091 0.894304 0.234021 6.00043 0.89225 0.244305 6.01155 0.894752 0.248036 
6.0185 0.900661 0.234685 6.0205 0.899527 0.246146 5.93502 0.904954 0.234212 
5.92877 0.909887 0.23423 6.05161 0.801857 0.363271 6.0524 0.810004 0.362322 
6.05817 0.809992 0.3707 6.06329 0.801877 0.379914 6.06303 0.809956 0.380162 
5.95924 0.818794 0.36289 5.95743 0.810168 0.378431 5.95157 0.821112 0.379413 
5.96192 0.810626 0.366151 6.05226 0.818273 0.362014 6.06173 0.817973 0.379335 
6.05811 0.826164 0.369943 5.97375 0.775265 0.375834 5.97556 0.769274 0.379378 
5.96916 0.77869 0.381606 5.96842 0.771318 0.393668 5.96522 0.778503 0.393089 
5.96579 0.786039 0.381206 5.96312 0.786058 0.392714 6.06832 0.77731 0.376995 
6.06639 0.785167 0.378918 6.07312 0.776696 0.385557 6.07703 0.776089 0.39489 
6.07441 0.782826 0.395541 5.96424 0.793941 0.37972 5.96082 0.793845 0.392153 
6.0654 0.793677 0.380194 6.0694 0.793884 0.39283 5.9607 0.802228 0.379047 
5.95856 0.801872 0.391862 6.06728 0.801934 0.392432 5.95553 0.809296 0.391535 
6.06551 0.809887 0.39219 5.95298 0.815205 0.391212 5.95022 0.820901 0.39083 
6.06445 0.817786 0.391647 6.06287 0.825492 0.391103 5.96461 0.778446 0.405268 
5.96248 0.785949 0.40522 6.11137 0.564149 0.313118 6.10997 0.572004 0.31423 
6.11574 0.56428 0.32323 6.11517 0.572303 0.323806 6.06666 0.574504 0.308 
6.0575 0.571768 0.311747 6.06914 0.580394 0.310093 6.05005 0.574897 0.31758 
6.05171 0.580853 0.319186 6.11427 0.580104 0.324717 6.10993 0.579534 0.315426 
6.06217 0.588676 0.315763 6.07187 0.588526 0.311883 6.05324 0.588928 0.320504 
6.08315 0.58877 0.310204 6.10763 0.586431 0.316862 6.11335 0.588038 0.325175 
6.07293 0.595923 0.314462 6.05509 0.597054 0.322494 6.08508 0.596571 0.312608 
6.09726 0.596122 0.314615 6.11145 0.596524 0.325857 6.06703 0.606247 0.319256 
6.08564 0.605105 0.314844 6.09731 0.604977 0.315677 6.10544 0.604995 0.320233 
6.11198 0.605103 0.326732 6.07721 0.61363 0.317272 6.08738 0.613458 0.315562 
6.06698 0.613604 0.320595 6.09803 0.613382 0.317562 6.11141 0.613453 0.327239 
6.08732 0.621496 0.317098 6.06839 0.621599 0.322107 6.09833 0.621497 0.317599 
6.10639 0.621619 0.321688 6.11302 0.621756 0.327619 6.07922 0.62942 0.319466 
6.08871 0.629183 0.31766 6.07014 0.629729 0.322478 6.09914 0.629206 0.319265 
6.11358 0.630096 0.327997 6.08812 0.636149 0.319897 6.08161 0.639729 0.321667 
6.07252 0.637759 0.324161 6.09887 0.63609 0.319852 6.10686 0.636569 0.322875 
6.11366 0.637393 0.326594 6.09866 0.641653 0.32289 6.08385 0.644752 0.324281 
6.11134 0.643863 0.328438 6.09846 0.650978 0.329594 6.02567 0.387478 0.31576 
6.03785 0.386438 0.316708 6.03805 0.391013 0.321627 6.02163 0.392078 0.319637 
6.0269 0.395527 0.324609 6.03832 0.39566 0.326917 6.05044 0.386982 0.315221 
6.05026 0.396071 0.325731 6.06757 0.394308 0.317103 6.00502 0.402637 0.314461 
6.01431 0.394043 0.316318 6.01641 0.403566 0.326933 6.02671 0.401398 0.330642 
6.03895 0.401402 0.332406 6.05205 0.401613 0.331901 6.06595 0.403814 0.329738 
6.08324 0.402662 0.317806 6.00311 0.408588 0.315831 6.00764 0.409391 0.323019 
6.01264 0.410188 0.329587 6.0814 0.411372 0.330681 6.0716 0.408675 0.333777 
6.09769 0.411208 0.316735 6.00416 0.414515 0.316936 6.01188 0.417578 0.330273 
6.09514 0.418933 0.328832 6.10067 0.416255 0.32088 6.08633 0.416387 0.334078 
6.00579 0.425422 0.318617 6.00993 0.426019 0.330698 6.10604 0.419213 0.315605 
6.10485 0.426132 0.324767 6.1101 0.426273 0.316432 6.00608 0.433732 0.319462 
6.03661 0.908842 0.161917 6.03767 0.916772 0.162309 6.03314 0.909297 0.170822 
6.03554 0.916864 0.171585 5.91278 0.917202 0.162124 5.91685 0.913533 0.166011 
5.91841 0.915453 0.172691 5.91008 0.924963 0.16236 5.91292 0.924935 0.171114 
5.91598 0.920812 0.17512 6.03682 0.924742 0.171887 6.03797 0.924689 0.162562 
5.90848 0.932898 0.162615 5.91023 0.932976 0.171661 6.03778 0.932703 0.162705 
6.03741 0.932742 0.171938 5.90787 0.940898 0.16272 5.90888 0.940971 0.171937 
6.03732 0.940781 0.172018 6.0373 0.940731 0.162742 5.90843 0.948825 0.162856 
5.90859 0.948935 0.172017 6.03621 0.948665 0.16286 6.03675 0.948788 0.17205 
5.91003 0.956653 0.162932 5.90975 0.956785 0.172174 6.03519 0.956601 0.172207 
[...]
POINT_DATA 3884
FIELD FieldData 3
lambda2-vtk 1 3884 float
381.985 174.354 169.141 111.35 117.548 80.5323 133.474 -294.111 -28.3466 
274.605 135.704 203.771 327.582 63.1274 1504.42 1733.98 1486.14 407.692 
1752.23 2278.58 1861.55 1451.51 922.652 1002.7 606.247 193.989 284.303 
154.787 1925.53 1824.84 1706.27 1583.4 946.167 1669.84 1621.52 1378.27 
1649.91 1714.73 1397.91 384.535 2810.97 2383.2 106.026 23.6897 48.9405 
1931.46 32.6498 1498.16 40.0296 84.4649 1059.2 170.572 644.615 226.448 
262.751 343.363 -491.016 -419.434 -540.692 -501.942 -480.432 -434.569 -431.31 
-404.931 -328.113 -323.603 -211.044 -427.032 -427.617 -534.234 -478.941 -339.449 
-512.072 -473.1 -436.082 -394.878 -478.642 -259.461 -452.477 -475.647 -433.067 
-453.79 -137.904 -368.056 -344.494 -201.691 -223.406 -439.712 -499.068 -483.891 
-495.585 -361.56 -200.14 -259.051 -422.067 -487.654 -508.722 -483.275 -544.396 
-479.221 -495.157 -381.656 -417.756 -466.612 -544.128 -528.881 -266.757 -461.475 
-460.622 -522.284 -466.701 -460.531 -394.766 -272.642 -435.543 -426.563 -410.511 
-499.362 -529.024 -337.627 -485.043 -384.226 -264.825 -191.327 -335.311 -487.227 
-368.029 -111.283 -302.001 -176.175 -447.493 -385.629 -520.024 -266.071 -491.663 
-386.088 51.014 -341.51 -91.7961 -400.779 298.246 -81.349 -496.965 61.8006 
-433.692 -118.795 39.8111 512.444 -230.597 131.288 -3.66364 -448.42 772.468 
233.595 -167.708 28.272 842.556 -435.744 -7.81882 -317.853 831.903 986.72 
-451.064 -155.881 795.445 -354.758 -313.047 127.967 750.465 965.639 -441.136 
190.101 186.117 -450.502 720.028 -528.191 -74.9651 -58.2558 -39.6165 -10.292 
836.987 1235.39 1365.15 81.0724 27.7898 416.956 506.271 162.802 183.034 
150.671 287.468 257.845 44.0145 80.2481 316.446 -216.479 -149.053 -370.509 
-349.943 148.29 98.4516 136.023 -436.865 -417.952 1.92491 -72.8653 -468.392 
-13.2859 241.275 -107.801 -128.187 47.8254 -150.963 -114.942 1.25732 1474.8 
1567.61 1584.4 91.1067 -169.857 4.79248 -381.202 230.183 -116.892 439.887 
-201.815 -345.473 1499.23 1697.46 -397.048 -454.768 286.22 182.918 381.736 
754.673 356.634 846.077 953.435 -486.047 547.899 682.556 110.139 538.702 
700.396 771.648 726.816 724.589 719.684 -325.466 -169.734 576.883 782.863 
924.248 742.262 703.457 11.3287 -376.197 707.685 565.195 -102.423 -189.272 
173.287 1110.97 842.08 359.456 411.716 705.237 638.364 -418.041 -453.184 
-450.84 -455.201 -439.025 27.0218 -352.008 -506.906 -339.445 -479.365 -461.332 
208.9 -245.415 -226.108 -537.859 -443.12 -515.49 -185.894 -102.767 -452.747 
-521.455 -543.448 -520.614 -382.223 -461.71 -331.978 -280.212 -76.1525 -342.281 
-425.474 -406.412 -540.93 -297.204 -341.344 -370.964 -267.078 -520.485 -71.5252 
-293.46 -287.153 -363.612 -501.101 -306.487 -521.05 -233.789 -372.568 -257.531 
-472.083 -413.574 -474.949 -443.791 -532.032 -18.8274 -130.044 195.573 -494.851 
135.84 34.085 -107.824 24.1823 -269.607 -11.8176 -110.873 167.612 -37.2109 
-205.404 -212.178 -54.9667 -246.317 -271.949 206.376 -94.7203 -35.0249 -464.526 
-0.206555 -220.838 -516.037 149.623 -279.287 -418.541 -228.681 -111.944 166.861 
256.453 70.0137 157.133 115.385 135.076 316.582 249.519 1219.5 -381.062 
-172.077 1056.78 1338.88 -453.447 212.782 151.518 908.496 1170.09 121.151 
167.857 752.417 971.67 109.548 87.1346 542.201 732.151 61.5586 71.1306 
397.022 485.648 72.0773 81.5265 357.058 333.399 115.899 124.553 -471.533 
-343.573 342.785 195.325 -434.423 24.7071 152.43 385.243 -1.79587 109.341 
247.282 431.602 505.703 172.494 -53.0663 365.372 237.613 -284.073 34.4869 
-428.323 -42.0874 245.473 -144.595 125.117 370.498 -28.1006 528.923 244.828 
-218.872 135.802 129.802 210.5 208.154 304.315 199.245 193.185 -301.17 
-69.9873 -89.9954 425.438 201.655 258.662 198.157 256.105 490.191 339.468 
256.248 377.547 1307.52 978.617 450.37 1235.04 572.425 1064.39 886.255 
724.111 244.16 165.302 645.72 593.812 452.828 292.197 1186.75 1167.38 
530.886 1317.68 1203.81 549.909 1006.37 25.1019 -335.562 1229.88 1330.18 
1331.07 1212.46 173.085 -113.059 -79.4311 -345.782 -88.5743 1078.19 991.378 
812.767 730.191 439.34 505.64 -296.575 104.909 515.892 363.882 -22.7805 
85.6183 -17.9761 117.675 -399.824 -359.691 -60.6999 -120.614 237.366 186.959 
-375.746 -94.7331 278.977 -386.287 -152.834 -530.703 -259.234 85.6946 -52.6959 
89.1642 -15.311 345.822 258.294 -376.966 -51.1775 303.665 -363.112 194.013 
-311.383 -367.472 -183.626 0.756045 225.24 222.891 -137.01 352.523 -15.4656 
-36.6108 1964.96 1945.9 1733.53 1483.87 1150.43 975.573 814.039 -359.469 
-478.124 870.829 775.844 731.564 660.94 -437.436 -517.969 537.512 561.034 
-310.082 -320.239 302.985 461.099 -415.137 -391.481 -143.648 -251.867 -258.463 
-537.749 -372.189 -529.447 -287.592 -439.916 -482.156 -350.427 -242.62 -521.959 
-373.684 -447.136 -296.038 -400.936 -292.71 -359.946 -383.729 -445.617 -449.922 
-450.4 -493.812 -387.681 -463.862 -485.512 -325.437 -85.2238 -223.227 -147.125 
-385.027 -267.255 -493.861 -319.555 -271.294 -311.52 -300.921 -243.685 -268.288 
-165.29 -480.404 -294.684 -199.441 -406.188 -301.801 -528.434 -532.016 -323.696 
-538.355 -449.763 -454.946 -218.86 -400.844 -493.768 -272.293 -441.324 -499.903 
-531.272 -426.775 -78.6026 -61.4697 -202.336 -490.894 -375.119 4.19402 468.874 
-140.841 637.295 -284.621 683.183 -409.746 690.058 -498.227 659.106 -539.17 
641.666 120.17 172.421 629.019 246.443 -345.285 250.987 54.4473 45.9543 
288.497 -3.29366 -214.251 -248.432 822.947 -8.74671 128.605 267.526 -81.6406 
145.625 -294.793 69.159 9.35757 -215.547 -37.9056 76.3379 -340.795 -6.09608 
-267.948 301.394 -57.9088 -443.492 -481.567 309.742 -535.24 -166.411 875.808 
148.158 -261.674 405.364 809.992 1177.12 -191.845 474.162 482.716 -332.443 
775.531 -538.323 545.503 -377.265 721.734 865.819 196.829 74.2729 174.826 
67.2211 2049.24 -31.0968 179.75 1826.23 1967.15 -18.3098 -17.5116 1508.22 
1620.63 -77.236 1130.58 -72.1794 734.857 11.1779 354.912 134.492 108.144 
248.579 42.1786 -281.458 162.412 -288.828 -240.31 -260.653 -397.287 -393.619 
-480.097 -284.967 -358.071 -451.645 -251.953 -377.11 -421.169 -491.375 -232.573 
-377.635 387.263 24.8945 -91.167 237.132 -381.2 -393.245 -57.7241 -178.142 
-263.833 -368.39 -71.5384 -486.274 113.564 -358.31 -210.593 -501.301 -267.842 
-365.086 -474.886 237.653 -176.635 278.534 -217.475 -150.454 -533.967 -311.352 
-367.14 40.855 -492.175 -387.773 273.76 295.743 23.0185 495.728 63.0502 
50.0165 -377.309 -164.764 98.2769 -311.806 -244.905 244.499 20.0424 -370.092 
-317.964 -334.193 -200.433 -469.503 -60.3445 -454.113 -342.014 12.078 33.6264 
-331.118 -500.144 -85.166 -514.849 -258.426 -533.091 -352.513 -319.909 -327.814 
-174.724 -391.496 -335.168 -395.833 -241.544 -436.182 190.271 -224.709 69.472 
630.95 369.086 186.27 593.017 -346.768 415.634 -179.404 252.738 393.277 
424.287 536.377 29.4075 371.347 175.721 347.507 710.311 288.23 -233.427 
484.47 102.741 116.268 355.187 360.403 417.74 271.011 413.605 846.831 
439.326 -429.765 73.5804 -168.669 193.452 539.56 322.637 -82.8903 267.701 
312.17 443.113 438.183 401.097 373.883 652.855 407.725 284.474 276.524 
359.776 487.82 381.89 342.231 427.877 705.083 1528.58 521.535 405.597 
276.192 1440.83 1345.82 1292.96 1446.74 256.535 176.954 235.125 1075.95 
151.467 59.3015 1001.9 -134.55 -166.135 89.1404 328.478 32.7588 177.262 
198.709 153.992 -231.324 272.973 60.4907 457.057 260.883 -270.516 270.561 
226.065 -126.455 -130.978 365.825 -242.62 -52.3272 280.977 1037.27 832.41 
759.945 578.834 -470.076 720.851 -530.747 -312.88 -317.221 -212 -223.684 
-377.965 -166.7 -377.148 -219.044 -388.044 -399.26 -238.349 -480.652 -308.744 
-381.17 -423.113 -359.132 -518.912 -529.344 -475.562 -540.406 -537.841 -153.912 
-336.767 -233.22 -235.544 -157.947 -6.57523 -356.725 -384.654 -90.1926 -430.104 
-334.992 337.943 -469.095 -104.616 381.947 311.9 109.025 -300.859 -505.126 
-456.355 377.682 228.129 -112.593 -449.98 365.053 466.979 354.248 47.0575 
-458.308 526.802 -514.256 129.309 -448.347 -458.573 -457.255 657.487 -203.948 
207.742 -461.991 -425.228 -17.2682 337.1 -416.14 -462.202 902.923 140.275 
479.493 -421.567 276.338 -357.271 619.319 -432.417 -208.129 -482.029 -394.739 
672.867 741.405 -398.812 -421.881 -529.168 -476.364 659.773 -343.828 -357.782 
622.508 -389.201 587.43 -293.831 -266.548 -315.168 518.048 -211.007 -207.652 
651.055 -259.743 441.046 -112.366 -146.919 -203.057 356.78 -87.5534 -17.5055 
709.957 -179.367 279.876 72.4311 -24.5358 -154.108 207.809 4.88123 145.374 
752.065 -140.358 139.529 73.3099 64.6326 -350.98 215.321 -96.7881 100.657 
-85.784 -126.7 -14.6991 159.29 1161.97 1379.6 21.8237 109.168 346.95 
722.004 -96.9646 1631.96 472.902 174.997 242.939 1433.66 164.515 331.928 
91.9834 2439.01 2124.46 -3.97028 -77.8557 177.974 -207.418 -371.231 -116.141 
-432.411 -496.946 -394.656 -117.353 29.0687 217.331 -203.72 -210.157 163.138 
-162.519 -419.969 -274.363 -407.489 -259.652 87.9379 604.225 -102.318 40.3839 
-464.688 -511.621 -263.736 -428.986 -279.719 -375.973 -513.839 -225.374 77.6167 
-458.565 -79.1243 -329.41 -382.851 -337.096 -421.627 -147.014 -421.362 -247.073 
-149.526 -356.338 664.822 -107.837 205.688 -95.2716 -310.567 -363.794 -481.103 
573.221 465.537 566.942 580.398 669.839 -480.596 518.465 -145.54 293.109 
138.465 1148.06 -321.437 209.654 278.085 428.65 1291.6 1043.5 824.989 
542.225 659.557 -202.243 555.458 104.335 477.913 -309.512 -536.209 -143.434 
-400.386 196.064 15.8508 -139.827 -469.44 93.9006 -57.2725 6.58622 -495.048 
-338.721 -90.5406 -140.165 -420.159 -262.808 -202.194 -184.019 -321.469 -192.726 
-257.875 -221.322 -183.344 -100.999 -226.1 -301.529 -15.7499 22.7777 -326.165 
-226.812 170.983 184.825 -215.933 -313.287 374.769 364.07 -318.285 -177.264 
-227.345 -466.751 -69.9097 -418.574 33.055 673.901 318.816 1180.62 399.771 
277.122 254.452 -411.589 -350.52 163.879 223.05 1680.93 1353.24 1494.1 
143.758 79.0706 1107.76 1239.09 10.5328 73.9153 843.704 918.001 29.8582 
-19.2752 537.595 594.186 23.2579 48.7617 300.899 283.485 135.733 126.296 
218.42 151.201 303.626 405.209 355.933 268.533 -0.404116 -1337.33 -1049.04 
463.071 260.401 392.563 81.1068 686.765 510.052 614.819 497.874 -433.719 
582.612 768.253 620.874 487.787 558.346 -520.811 -278.518 732.158 -497.652 
497.358 544.747 -218.099 -43.5179 484.81 472.098 167.619 23.6811 301.887 
-52.0662 239.78 384.257 1046.74 -415.642 838.938 -84.3842 -383.48 -2.38375 
-174.328 -242.806 -7.72699 100.892 -75.5344 181.039 -123.368 -513.836 -145.554 
-379.231 -153.039 -208.277 -130.064 -14.7247 -120.808 194.886 -98.1714 -492.467 
-261.04 -466.076 204.495 -88.3573 -272.838 328.611 242.673 -168.967 -240.786 
99.7799 -334.555 60.3253 -414.846 20.349 -170.072 -378.086 -234.373 -30.8688 
-370.672 -357.69 87.8763 15.6335 114.794 54.7673 944.23 270.282 247.325 
-169.97 -12.2434 41.0485 222.84 249.226 -40.7042 -492.322 1202.15 -156.525 
152.865 242.679 1617.27 1496.83 1947.68 68.8819 126.886 1085.58 204.546 
685.629 287.817 409.124 305.187 -322.006 -178.865 248.308 350.107 18.7865 
89.0671 298.541 -450.858 -108.207 -243.438 221.323 -272.535 -123.345 112.448 
-123.774 -278.277 -236.218 -348.611 -86.5484 170.247 153.68 -381.028 145.286 
34.4305 20.4125 -482.413 1263.38 1288.33 591.982 563.119 1776.34 176.735 
107.696 107.583 -403.266 -139.604 1605.83 1386.38 -34.223 153.039 169.362 
-255.497 440.73 493.497 697.164 -83.2205 -265.725 90.1279 508.302 650.483 
344.101 -399.273 333.017 42.7686 564.3 585.309 -22.5799 244.602 6.46507 
-505.159 94.8847 -25.6749 320.206 272.844 -108.904 413.089 599.354 -15.3057 
-189.459 412.213 -38.8613 254.85 910.051 1010.78 937.911 810.064 -339.783 
-142.35 720.122 820.137 154.215 471.456 -515.911 168.449 -231.055 313.308 
572.325 -240.03 763.425 327.692 668.007 -255.459 327.938 611.953 -393.978 
-243.835 -401.372 -333.338 -447.021 -493.09 -493.295 -434.052 -350.088 -436.622 
-476.35 -524.626 -518.733 -487.441 -415.351 -296.672 -459.949 -499.441 -332.234 
-76.0148 -354.535 -440.468 -479.448 -54.9945 -268.943 -469.739 -464.653 -416.152 
-245.292 -464.747 -342.912 -457.549 -401.397 -532.821 -450.425 501.823 -94.8566 
-448.539 42.689 -448.797 614.375 6.39984 153.245 -445.859 79.7873 -535.217 
258.171 -457.681 -430.468 -488.278 167.048 -323.993 -527.419 -216.463 -258.277 
-321.133 -346.926 146.586 -210.634 -149.862 -375.151 -200.761 -513.049 -82.693 
-463.923 -583.261 -446.689 -274.018 -393.012 -450.55 -428.883 -708.564 -249.585 
-603.029 -367.872 -314.176 328.404 380.312 226.081 92.974 215.416 30.3846 
144.581 34.2422 -239.435 -263.532 -107.288 174.82 -247.534 -253.315 75.6876 
119.355 -194.044 -247.213 594.514 -135.868 -135.602 146.57 -270.142 546.735 
-140.497 -125.894 -299.762 -527.697 -117.205 -102.899 204.419 -590.601 -428.521 
445.809 -89.8358 -88.9561 -483.688 -768.204 -351.301 -79.066 -76.8146 -431.637 
-674.052 -897.327 333.639 -86.9169 -377.235 -1191.42 -1265.86 -314.652 -123.948 
316.966 -203.718 321.19 214.959 -84.4311 209.747 -516.561 -28.9206 378.334 
150.054 -6.66986 -10.0734 -53.779 244.869 -469.219 -207.074 527.334 106.784 
-443.536 -334.3 53.7602 175.227 370.368 -65.2144 -110.452 -338.767 -310.956 
-392.306 286.289 185.852 4.80249 123.463 89.2614 302.221 242.445 89.6462 
294.663 -297.783 -201.753 53.1134 -250.768 -104.268 -42.9874 -122.66 -5.1379 
1170.09 579.583 938.776 -176.821 19.0949 318.155 -37.1327 1523.24 1564.46 
299.875 1111.99 391.594 408.762 719.642 311.387 -416.635 -407.994 -54.4797 
-534.312 139.126 77.9642 473.74 -464.829 -166.569 189.614 469.731 72.7593 
-346.966 -382.041 -170.868 -210.656 93.6995 -23.1174 368.565 1710.6 1194.7 
1656.32 1108.56 157.769 -380.577 832.602 -473.354 -392.594 344.707 751.067 
215.03 861.345 -71.3524 -541.552 1243.21 723.715 626.329 143.525 12.5853 
-385.044 -213.038 -416.121 -498.409 637.273 -512.603 -279.531 -303.308 890.629 
-163.247 542.766 198.244 2145.85 808.276 512.09 61.587 1140.94 573.522 
543.188 810.186 161.542 264.363 -238.802 518.87 -246.337 647.256 -22.3611 
768.259 1108.28 -104.081 -426.4 -434.345 -433.077 451.766 -159.035 -443.217 
-537.227 -374.747 132.001 90.2338 114.28 -96.3412 1143.06 1610.91 1271.46 
908.094 -235.759 11.1296 861.772 660.583 -80.5579 -220.894 86.8595 170.913 
-139.44 -78.3189 2279.09 -226.63 -12.0052 1789.77 1594.93 73.9266 1355.87 
170.901 959.685 870.086 250.792 686.005 -522.931 308.672 -407.398 -487.238 
-219.519 -252.126 -432.485 -500.058 -338.098 -134.04 -187.728 -297.053 -447.308 
-372.796 -500.232 -390.072 -254.837 -420.396 -478.441 -397.625 -430.801 -443.523 
-341.29 -276.681 -412.605 -429.235 -320.541 -542.517 -383.527 -518.063 -475.051 
-376.221 -477.858 -422.21 -425.191 -522.999 -497.856 -474.227 -361.581 -195.414 
-488.635 -362.8 -317.441 33.5929 82.6795 -288.577 844.284 190.365 -280.246 
297.985 -285.525 973.208 398.397 -282.169 -519.274 474.675 -274.248 -391.121 
-263.372 381.548 -346.421 -249.069 -336.104 83.221 401.743 -159.527 352.464 
-44.0696 -165.845 512.768 -425.948 -325.911 75.3063 37.1531 12.6311 -408.66 
77.9018 267.198 -426.072 -210.805 262.505 445.603 245.207 166.51 -468.654 
-58.0653 -118.963 -3.39359 124.892 -220.951 829.736 -355.547 351.483 -389.554 
151.365 499.617 -87.2261 225.37 160.282 72.426 71.6664 -67.2558 616.669 
-136.306 516.61 -403.228 281.058 291.511 322.122 268.059 -76.4445 210.765 
1371.3 987.693 258.396 147.199 415.881 102.398 161.899 111.005 382.122 
-268.844 -49.649 -130.976 696.896 -375.429 713.403 192.438 626.086 119.679 
420.477 28.7114 66.5777 -28.5048 433.17 480.661 686.117 161.978 230.001 
342.277 554.087 687.845 624.152 -461.504 307.331 5.73376 558.905 380.801 
-255.08 -503.7 445.44 -62.1186 -513.997 1019.98 335.991 523.075 108.736 
-338.961 853.173 866.019 242.783 215.482 -164.926 714.074 151.096 622.594 
314.027 -33.9278 574.744 698.754 45.0363 443.343 114.916 467.251 -50.8218 
-516.08 257.273 381.014 521.789 -419.743 -351.552 -280.629 -73.2447 -484.499 
-459.021 -427.4 -457.192 -498.586 -491.858 -132.495 -449.22 -485.409 -491.301 
-400.961 -63.2685 -253.066 -326.82 -405.763 -450.325 -512.34 -484.064 -51.3234 
50.7494 -111.913 -337.299 -405.063 -509.425 -273.835 -173.284 -314.519 -478.213 
-276.929 -411.621 -476.065 -308.378 -502.227 -340.244 -321.901 -158.751 -364.088 
-529.419 -184.911 -505.887 192.206 -38.1295 363.845 -127.485 307.476 758.893 
25.9727 81.2678 -500.862 -457.49 -218.994 245.637 748.331 577.362 325.377 
145.105 -251.357 -542.578 -67.0598 -164.364 810.717 725.204 -60.2868 601.462 
32.1838 521.136 51.9573 408.337 38.2583 323.814 20.3524 296.751 -1941.49 
-1725.97 -679.349 415.293 389.417 -523.289 379.525 424.576 -370.273 545.711 
377.47 -206.319 158.587 -70.5472 554.536 -382.997 94.6396 603.822 250.676 
601.203 -483.69 320.819 312.22 412.127 -301.087 86.1859 -170.609 -70.8974 
-131.723 -355.323 -515.835 -438.216 -540.874 -525.954 -379.884 -341.126 -294.087 
-311.445 87.9522 -78.2993 -70.7339 -390.204 -509.379 -60.1051 -229.155 -213.066 
-360.778 -236.987 -316.591 -384.977 -250.283 -111.024 -492.71 -384.772 -156.32 
-23.6074 -403.317 -49.4444 -50.6833 53.4393 -381.027 0.642689 -63.7935 157.122 
-527.692 120.138 -95.4008 433.632 -88.0505 28.3562 -255.903 339.155 41.3801 
-128.395 -108.736 7.53513 1059.17 207.991 -330.936 -245.522 -102.42 285.219 
-134.938 744.561 -379.286 -453.961 758.39 263.803 701.887 496.53 -391.956 
-49.9311 -534.174 -266.545 153.096 -476.668 24.4316 -426.528 -130.31 -115.514 
60.0252 -437.074 1174.76 472.652 1849.76 113.794 1063.41 57.8047 151.457 
12.2438 2969.74 2407.07 -419.817 -415.472 501.206 390.882 497.295 -399.24 
-281.837 -436.719 -153.21 -451.085 547.28 -262.196 -380.804 115.266 -156.752 
-376.667 -274.071 360.069 121.249 -262.911 -377.929 -383.767 -125.321 337.041 
-359.444 -240.265 -290.531 -423.259 -218.176 -333.457 289.972 -217.676 -17.6183 
-320.862 -505.84 -47.5809 -444.646 198.67 -458.563 -247.861 -306.344 -426.404 
-282.061 -241.148 -437.724 -311.27 -511.979 -478.494 -390.791 -423.318 -303.948 
-314.099 -81.5653 -326.691 -368.388 -386.653 -341.189 -236.759 -526.229 -268.009 
34.9091 269.922 635.338 305.931 56.4655 360.848 105.948 -395.528 -294.382 
232.614 -151.878 121.783 235.269 188.394 285.128 -331.119 -105.294 357.987 
186.764 146.812 -519.946 -337.46 168.579 94.7139 243.172 96.4514 539.218 
304.141 147.939 70.2164 217.493 412.112 52.8671 445.947 531.234 280.793 
95.2804 65.5526 195.673 34.3485 304.205 257.96 1.44325 44.5826 177.181 
427.223 18.0907 156.104 496.218 214.198 -94.4144 -4.02629 166.014 -33.9414 
147.328 -185.991 -38.8646 158.267 442.416 -284.452 -76.6993 159.143 -81.8153 
170.805 464.559 -402.933 -485.488 -209.518 -22.5745 -262.941 -104.479 -412.983 
-307.668 -501.002 -307.789 -493.787 -534.141 -206.118 68.128 82.5479 -81.9208 
-62.1986 -141.385 -393.275 -444.444 -146.949 -387.336 -361.84 -496.469 -425.695 
-436.211 -481.703 -342.477 -146.945 -412.667 -21.6951 -501.961 -334.311 -489.823 
-474.569 -391.507 -454.989 -428.643 -209.745 -358.961 -418.04 -435.219 -475.484 
-446.527 -444.316 -281.577 -350.691 -524.591 -311.007 -480.917 -391.569 -218.423 
-529.12 -354 -474.276 -530.935 -69.6112 -192.061 -532.389 -304.114 43.16 
-478.336 -322.414 -157.073 -201.763 -80.1802 911.469 797.612 376.678 1022.76 
920.952 920.954 821.234 -298.148 570.886 -315.807 690.932 534.336 306.04 
18.16 460.938 571.493 480.716 462.811 -54.7468 386.898 691.781 731.708 
656.558 712.156 514.008 425.048 350.126 443.184 256.295 -362.795 -385.565 
686.998 382.073 347.887 177.487 442.704 297.177 -389.18 934.161 1016.31 
229.13 810.458 -64.5949 57.4351 -205.694 -128.499 -477.64 -333.555 -226.618 
-232.508 -496.247 -462.96 -205.809 -441.473 -489.439 -309.428 -420.943 -254.287 
-357.792 -364.498 -420.322 -308.5 -471.905 -334.391 -443.999 -275.468 -360.618 
-100.086 -499.808 -130.105 -109.461 -84.9342 -345.269 -421.184 -333.834 18.6847 
-166.107 -378.363 -459.245 -338.752 -309.205 -416.91 -28.0144 -73.1028 1198.82 
121.046 -261.068 -100.492 1024.2 -111.624 818.446 -103.819 616.83 -72.3921 
465.295 -35.2755 384.237 16.596 351.883 92.6948 325.2 174.078 286.768 
-377.914 -509.666 -428.736 -266.106 -143.072 -396.538 84.2985 26.1507 -403.775 